# vtk DataFile Version 2.0
goldfish, Created by Gmsh
ASCII
DATASET UNSTRUCTURED_GRID
POINTS 221 double
0 1 0
1.5 0.75 0
2.25 0 0
1.5 -0.75 0
0 -1 0
0.5 0 0
0.75 0 0
1.5 0 0
0.75 0.5 0
0.75 -0.5 0
1.5 1 0
1.5 -1 0
2.5 0 0
1.5 1.5 0
1.5 -1.5 0
3 0 0
4 -0 0
0 1 -0.5
0.5 0 -0.5
0 -1 -0.5
0.75 -0.5 -0.5
1.5 -1.5 -0.5
4 0 -0.5
1.5 1.5 -0.5
0.75 0.5 -0.5
0.1342058782563876 0.680570706814839 0
0.2202370400319263 0.345038896173018 0
0.25 -2.876847426946938e-09 0
0.2202370393808558 -0.3450388999469145 0
0.1342058776475787 -0.6805707086039519 0
0.3749999999988438 0.7500000000007707 0
0.3749999999988438 -0.7500000000007707 0
1.0691749093736 0.8085915712225717 0
1.481045977611484 0.9704143077124273 0
1.922918701379087 0.9420072956014853 0
2.321289544959342 0.7468074851622424 0
2.622821914705422 0.4217925093441917 0
2.75 -6.275474362382738e-09 0
2.622821909166085 -0.4217925184313396 0
2.321289537154598 -0.7468074909262397 0
1.922918694534602 -0.942007297494343 0
1.481045972987319 -0.9704143070041897 0
1.069174907527553 -0.8085915699902805 0
0.1342058782563876 0.680570706814839 -0.5
0.2202370400319263 0.345038896173018 -0.5
0.25 -2.876847426946938e-09 -0.5
0.2202370393808558 -0.3450388999469145 -0.5
0.1342058776475787 -0.6805707086039519 -0.5
0.3749999999988438 -0.7500000000007707 -0.5
1.0691749093736 -0.8085915712225717 -0.5
1.481045977611484 -0.9704143077124273 -0.5
1.922918701379087 -0.9420072956014853 -0.5
2.321289544959342 -0.7468074851622424 -0.5
2.622821914705422 -0.4217925093441917 -0.5
2.75 6.275474362382738e-09 -0.5
2.622821909166085 0.4217925184313396 -0.5
2.321289537154598 0.7468074909262397 -0.5
1.922918694534602 0.942007297494343 -0.5
1.481045972987319 0.9704143070041897 -0.5
1.069174907527553 0.8085915699902805 -0.5
0.3750000000010404 0.7499999999993064 -0.5
0 1 -0.2499999999993359
0 -1 -0.2499999999993359
0.75 -0.5 -0.2499999999993359
0.75 0.5 -0.2499999999993359
1.434022277487866 -0.2687314946247371 0
0.786466775267863 0.01848978947553866 0
2.05307816181203 0.07329709984122149 0
1.434789648146935 0.3513673514489488 0
0.4851185200159632 0.422519448086509 0
0.4851185196904279 -0.4225194499734573 0
0.5033519076498947 0.1817643428242783 0
0.7682333876339316 0.2592448947377693 0
1.092394824073468 0.4256836757244744 0
1.457917812879209 0.6608908295806881 0
1.110628211707399 0.1849285704622437 0
0.7682333876339316 -0.2407551052622307 0
0.5033519073243594 -0.1632745552356879 0
1.457534125237593 -0.6195729008144634 0
1.092011138743933 -0.3843657473123685 0
1.110244526377865 -0.1251208525745992 0
1.878039596553139 0.5490874183055956 0
2.187183853385686 0.4100522925017319 0
2.401539080906015 0.03664854678287356 0
1.743933904979483 0.2123322256450851 0
2.187183849483314 -0.3367551955425091 0
1.877655907321232 -0.5077694927754883 0
1.743550219649948 -0.0977171973917578 0
1.434405962817401 0.04131792841210585 0
0.1341911144288699 0.6806140920407983 -0.2487066281217512
0.1341911138123021 -0.6806140938525969 -0.2512933704526393
0.25 -2.327917636435473e-09 -0.2490115131381117
0.07251111708012734 0.8425885898108819 -0.1243533140608756
0.07251111708012734 0.8425885898108819 -0.3743533140608756
0.1838160247913927 0.5145249273207559 -0.1243533140608756
0.07251111672492105 -0.8425885906540129 -0.3756466852263197
0.07251111672492105 -0.8425885906540129 -0.1256466852263197
0.1838160240959832 -0.514524930023869 -0.1256466852263197
0.1838160247913927 0.5145249273207559 -0.3743533140608756
0.1838160240959832 -0.514524930023869 -0.3756466852263197
0.2425040004061826 -0.1731588818838627 -0.1245057565690559
0.2425040007652906 0.1731588777361345 -0.1245057565690559
0.2202370400319263 0.345038896173018 -0.25
0.2425040007652906 0.1731588777361345 -0.3745057565690558
0.2202370393808558 -0.3450388999469145 -0.25
0.2425040004061826 -0.1731588818838627 -0.3745057565690559
0.3735797177740179 -0.7509468548173214 -0.2500000001057523
0.5617898588870089 -0.6254734274086606 -0.1250000000528761
0.1867898588870089 -0.8754734274086607 -0.1250000000528761
0.1867898588870089 -0.8754734274086607 -0.3750000000528761
0.5617898588870089 -0.6254734274086606 -0.3750000000528761
1.921237845746915 0.9424707664251069 -0.2612666527997343
1.921237840298592 -0.9424707679229494 -0.2612666570744399
1.068564067128234 0.8081835243028755 -0.2655446528123678
1.068564067128235 -0.808183524302876 -0.2344553457078426
2.622073276082372 0.423018671715508 -0.2292781423625112
2.622073276082372 -0.423018671715508 -0.2707218561242844
0.8961478411223167 0.6675081580871769 -0.3827723264061839
0.8961478411223167 0.6675081580871769 -0.1327723264061839
1.265785211436402 0.9120739100857338 -0.1327723264061839
0.8961295879675049 -0.6674903062765555 -0.1172276728539213
0.8961295879675049 -0.6674903062765555 -0.3672276728539213
1.265785207969964 -0.9120739087137738 -0.1172276728539213
1.265785210110836 -0.9120739095610962 -0.3672276728539213
1.265785209332172 0.9120739092529135 -0.3827723264061839
1.704266099584401 0.9795870507159788 -0.1306333263998671
2.131252255522845 0.8625014026345155 -0.1306333263998671
1.704266097300744 0.9795870508707825 -0.3806333263998671
1.481045975299402 0.9704143073583087 -0.25
2.489680436721743 0.5967094204862837 -0.1146390711812556
2.71642959659078 0.2162755029103951 -0.1146390711812556
2.131252251108286 0.8625014048062132 -0.3806333263998671
2.32128954105697 0.7468074880442408 -0.25
2.489680433504311 0.5967094239477868 -0.3646390711812556
2.716429594702594 -0.2162755090485522 -0.1353609280621422
2.489680433504311 -0.5967094239477868 -0.1353609280621422
2.716429594702592 0.2162755090485566 -0.3646390711812556
2.75 0 -0.25
2.716429596590786 -0.2162755029103747 -0.3853609280621422
2.131252248591998 -0.8625014060440759 -0.13063332853722
1.704266094410594 -0.979587051066699 -0.13063332853722
2.131252253006557 -0.8625014038723779 -0.38063332853722
2.32128954105697 -0.7468074880442408 -0.25
2.489680436721743 -0.5967094204862837 -0.3853609280621422
1.704266096698147 -0.9795870509116311 -0.38063332853722
1.481045975299402 -0.9704143073583087 -0.25
0.3764202829218359 0.749053144718776 -0.2500000001057522
0.188210141460918 0.874526572359388 -0.1250000000528761
0.563210141460918 0.624526572359388 -0.1250000000528761
0.188210141460918 0.874526572359388 -0.3750000000528761
0.563210141460918 0.624526572359388 -0.3750000000528761
1.434022277520915 0.2687314940289905 -0.5
0.7864667752656602 -0.01848979084477845 -0.5
2.053078161861574 -0.07329709991887796 -0.5
1.434789648143287 -0.3513673517126633 -0.5
0.4851185200159632 0.422519448086509 -0.5
0.4851185196904279 -0.4225194499734573 -0.5
0.7682333876328301 -0.2592448954223892 -0.5
0.503351907323258 -0.1817643453958465 -0.5
1.457917812877386 -0.6608908297125453 -0.5
1.092394824071643 -0.4256836758563316 -0.5
1.110628211704474 -0.1849285712787209 -0.5
0.5033519076487933 0.1632745526641198 -0.5
0.7682333876328301 0.2407551045776108 -0.5
1.092011138760458 0.3843657470144952 -0.5
1.457534125254117 0.6195729005165902 -0.5
1.110244526393288 0.125120851592106 -0.5
1.878039596551315 -0.5490874184374528 -0.5
2.401539080930787 -0.0366485468217018 -0.5
2.187183853410458 -0.4100522925405601 -0.5
1.743933905002431 -0.2123322258157706 -0.5
2.187183849508086 0.3367551955036808 -0.5
1.877655907337757 0.507769492477615 -0.5
1.743550219691245 0.09771719705505627 -0.5
1.434405962832101 -0.04131792884183638 -0.5
0.2969083785774368 -0.5479928773821179 -0.3750000000528761
0.2969083785774368 -0.5479928773821179 -0.1250000000528761
0.2983286614768811 0.547046020445897 -0.3750000000528761
0.2983286614768811 0.547046020445897 -0.1250000000528761
0.5182333876339316 0.009244893573810514 -0.1245057565690559
0.5182333876328301 -0.009244896586348042 -0.3745057565690559
1.677630061633915 0.6056011302270486 -0.3806333263998671
1.67801374422094 -0.6469190598178063 -0.38063332853722
0.2553056986753529 0.7148336183797872 -0.2493533141137517
0.25388541579316 -0.7157804743349592 -0.2506466852791958
2.187183849508086 -0.4100522954225588 -0.25
1.74355021967472 -0.1710142972718075 -0.25
1.987158001080083 -0.5078839339209137 -0.38063332853722
1.677630058893229 -0.6056011312738432 -0.13063332853722
1.987158003779472 0.5078839331331642 -0.1306333263998671
2.187183849483314 0.4100522953837306 -0.25
1.743550219666473 0.171014296935106 -0.25
2.337575718947201 0.2481578857783647 -0.1146390711812556
2.337575718971973 -0.248157885817193 -0.3853609280621422
1.678013746946925 0.6469190589370278 -0.1306333263998671
1.25129317230805 -0.5384575094638065 -0.1172276728539213
1.251293172324575 0.538457509165933 -0.3827723264061839
1.434405962815577 -0.3100494231687002 -0.25
1.434405962833925 0.3100494227389696 -0.25
2.337575718947201 -0.1748607859371433 -0.1353609280621422
2.337575718971973 0.174860785898315 -0.3646390711812556
0.4851185200159632 0.422519448086509 -0.25
0.5 0.2499999988360412 -0.1245057565690559
0.4851185196904279 -0.4225194499734573 -0.25
0.5 -0.2500000011639588 -0.3745057565690559
1.251676857637585 0.5797754378759121 -0.1327723264061839
1.251676857635761 -0.5797754380077697 -0.3672276728539213
0.7682333876339316 0.2592448947377693 -0.25
0.7864667752667616 -6.846198920273938e-10 -0.25
0.5 0.2499999988360412 -0.3745057565690559
0.7682333876328301 -0.2592448954223892 -0.25
0.5 -0.2500000011639588 -0.1245057565690559
2.053078161836802 -3.882823923495593e-11 -0.25
2.401539080930787 -0.03664855309717616 -0.25
1.110244526394389 0.1436106417522646 -0.25
1.110244526376763 -0.1436106427347578 -0.25
1.457917810567127 0.6608908292265693 -0.25
1.457917810565303 -0.6608908293584265 -0.25
1.092394824071643 -0.4256836758563316 -0.25
1.434022277504391 -2.978732815961393e-10 -0.25
1.092011138760458 0.3843657470144952 -0.25

CELLS 1061 4814
1 0
1 1
1 2
1 3
1 4
1 5
1 6
1 7
1 8
1 9
1 10
1 11
1 12
1 13
1 14
1 15
1 16
1 17
1 18
1 19
1 20
1 21
1 22
1 23
1 24
2 0 25
2 25 26
2 26 27
2 27 28
2 28 29
2 29 4
2 0 30
2 30 8
2 4 31
2 31 9
2 8 32
2 32 33
2 33 34
2 34 35
2 35 36
2 36 37
2 37 38
2 38 39
2 39 40
2 40 41
2 41 42
2 42 9
2 17 43
2 43 44
2 44 45
2 45 46
2 46 47
2 47 19
2 19 48
2 48 20
[...]
CELL_DATA 1061
SCALARS CellEntityIds int 1
LOOKUP_TABLE default
-1
-1
-1
-1
-1
-1
-1
-1
-1
-1
-1
-1
-1
-1
-1
-1
-1
-1
-1
-1
-1
-1
-1
-1
-1
-1
-1
-1
-1
-1
-1
-1
-1
-1
-1
-1
-1
-1
-1
-1
-1
-1
-1
-1
-1
-1
-1
-1
-1
-1
-1
-1
-1
-1
-1
-1
-1
-1
-1
-1
-1
-1
-1
-1
-1
-1
-1
-1
-1
-1
-1
-1
-1
-1
-1
-1
-1
5
5
5
5
5
5
5
5
5
5
5
5
5
5
5
5
5
5
5
5
5
5
5
5
5
5
5
5
5
5
5
5
5
5
5
5
5
5
5
5
5
5
5
5
5
5
5
5
5
5
5
5
5
5
5
5
5
5
5
5
5
5
5
5
5
5
5
5
1
1
1
1
1
1
1
1
1
1
1
1
1
1
1
1
1
1
1
1
1
1
1
1
1
1
1
1
1
1
1
1
1
1
1
1
1
1
1
1
1
1
1
1
1
1
1
1
3
3
3
3
3
3
3
3
3
3
3
3
3
3
3
3
4
4
4
4
4
4
4
4
4
4
4
4
4
4
4
4
4
4
4
4
4
4
4
4
4
4
4
4
4
4
4
4
4
4
4
4
4
4
4
4
4
4
4
4
4
4
4
4
4
4
4
4
4
4
4
4
4
4
4
4
4
4
4
4
4
4
4
4
4
4
4
4
4
4
4
4
4
4
4
4
4
4
4
4
4
4
4
4
4
4
4
4
4
4
4
4
2
2
2
2
2
2
2
2
2
2
2
2
2
2
2
2
6
6
6
6
6
6
6
6
6
6
6
6
6
6
6
6
6
6
6
6
6
6
6
6
6
6
6
6
6
6
6
6
6
6
6
6
6
6
6
6
6
6
6
6
6
6
6
6
6
6
6
6
6
6
6
6
6
6
6
6
6
6
6
6
6
6
6
6
-1
-1
-1
-1
-1
-1
-1
-1
-1
-1
-1
-1
-1
-1
-1
-1
-1
-1
-1
-1
-1
-1
-1
-1
-1
-1
-1
-1
-1
-1
-1
-1
-1
-1
-1
-1
-1
-1
-1
-1
-1
-1
-1
-1
-1
-1
-1
-1
-1
-1
-1
-1
-1
-1
-1
-1
-1
-1
-1
-1
-1
-1
-1
-1
-1
-1
-1
-1
-1
-1
-1
-1
-1
-1
-1
-1
-1
-1
-1
-1
-1
-1
-1
-1
-1
-1
-1
-1
-1
-1
-1
-1
-1
-1
-1
-1
-1
-1
-1
-1
-1
-1
-1
-1
-1
-1
-1
-1
-1
-1
-1
-1
-1
-1
-1
-1
-1
-1
-1
-1
-1
-1
-1
-1
-1
-1
-1
-1
-1
-1
-1
-1
-1
-1
-1
-1
-1
-1
-1
-1
-1
-1
-1
-1
-1
-1
-1
-1
-1
-1
-1
-1
-1
-1
-1
-1
-1
-1
-1
-1
-1
-1
-1
-1
-1
-1
-1
-1
-1
-1
-1
-1
-1
-1
-1
-1
-1
-1
-1
-1
-1
-1
-1
-1
-1
-1
-1
-1
-1
-1
-1
-1
-1
-1
-1
-1
-1
-1
-1
-1
-1
-1
-1
-1
-1
-1
-1
-1
-1
-1
-1
-1
-1
-1
-1
-1
-1
-1
-1
-1
-1
-1
-1
-1
-1
-1
-1
-1
-1
-1
-1
-1
-1
-1
-1
-1
-1
-1
-1
-1
-1
-1
-1
-1
-1
-1
-1
-1
-1
-1
-1
-1
-1
-1
-1
-1
-1
-1
-1
-1
-1
-1
-1
-1
-1
-1
-1
-1
-1
-1
-1
-1
-1
-1
-1
-1
-1
-1
-1
-1
-1
-1
-1
-1
-1
-1
-1
-1
-1
-1
-1
-1
-1
-1
-1
-1
-1
-1
-1
-1
-1
-1
-1
-1
-1
-1
-1
-1
-1
-1
-1
-1
-1
-1
-1
-1
-1
-1
-1
-1
-1
-1
-1
-1
-1
-1
-1
-1
-1
-1
-1
-1
-1
-1
-1
-1
-1
-1
-1
-1
-1
-1
-1
-1
-1
-1
-1
-1
-1
-1
-1
-1
-1
-1
-1
-1
-1
-1
-1
-1
-1
-1
-1
-1
-1
-1
-1
-1
-1
-1
-1
-1
-1
-1
-1
-1
-1
-1
-1
-1
-1
-1
-1
-1
-1
-1
-1
-1
-1
-1
-1
-1
-1
-1
-1
-1
-1
-1
-1
-1
-1
-1
-1
-1
-1
-1
-1
-1
-1
-1
-1
-1
-1
-1
-1
-1
-1
-1
-1
-1
-1
-1
-1
-1
-1
-1
-1
-1
-1
-1
-1
-1
-1
-1
-1
-1
-1
-1
-1
-1
-1
-1
-1
-1
-1
-1
-1
-1
-1
-1
-1
-1
-1
-1
-1
-1
-1
-1
-1
-1
-1
-1
-1
-1
-1
-1
-1
-1
-1
-1
-1
-1
-1
-1
-1
-1
-1
-1
-1
-1
-1
-1
-1
-1
-1
-1
-1
-1
-1
-1
-1
-1
-1
-1
-1
-1
-1
-1
-1
-1
-1
-1
-1
-1
-1
-1
-1
-1
-1
-1
-1
-1
-1
-1
-1
-1
-1
-1
-1
-1
-1
-1
-1
-1
-1
-1
-1
-1
-1
-1
-1
-1
-1
-1
-1
-1
-1
-1
-1
-1
-1
-1
-1
-1
-1
-1
-1
-1
-1
-1
-1
-1
-1
-1
-1
-1
-1
-1
-1
-1
-1
-1
-1
-1
-1
-1
-1
-1
-1
-1
-1
-1
-1
-1
-1
-1
-1
-1
-1
-1
-1
-1
-1
-1
-1
-1
-1
-1
-1
-1
-1
-1
-1
-1
-1
-1
-1
-1
-1
-1
-1
-1
-1
-1
-1
-1
-1
-1
-1
-1
-1
-1
-1
-1
-1
-1
-1
-1
-1
-1
-1
-1
-1
-1
-1
-1
-1
-1
-1
-1
-1
-1
-1
-1
-1
-1
-1
-1
-1
-1
-1
-1
-1
-1
-1
-1
-1
-1
-1
-1
-1
-1
-1
-1
-1
-1
-1
-1
-1
-1
-1
-1
-1
-1
-1
-1
-1
-1
-1
-1
-1
-1
